LAMMPS Description

     8352  atoms
     7514  bonds
     12396  angles
     10250  dihedrals
     2750  impropers

     24  atom types
     21  bond types
     35  angle types
     41  dihedral types
     11  improper types

  -25.0 25.0 xlo xhi
  -25.0 25.0 ylo yhi
  -25.0 25.0 zlo zhi

Masses

1 26.98  # Al
2 35.45  # Cl_clo4
3 15.99  # O_clo4
4 12.011  # type1_c_unk_edadc
5 12.011  # type2_c_unk_edadc
6 14.007  # type3_n_unk_edadc
7 12.011  # type4_c_unk_edadc
8 12.011  # type5_c_unk_edadc
9 14.007  # type6_n_unk_edadc
10 12.011  # type7_c_unk_edadc
11 12.011  # type8_c_unk_edadc
12 1.008  # type9_h_unk_edadc
13 1.008  # type10_h_unk_edadc
14 1.008  # type11_h_unk_edadc
15 1.008  # type12_h_unk_edadc
16 1.008  # type13_h_unk_edadc
17 1.008  # type14_h_unk_edadc
18 1.008  # type15_h_unk_edadc
19 1.008  # type16_h_unk_edadc
20 1.008  # type17_h_unk_edadc
21 1.008  # type18_h_unk_edadc
22 1.008  # type19_h_unk_edadc
23 10.811  # B_bf4
24 18.998  # F_bf4

Atoms  # full

1 1 1 3 -7.204 19.755 -21.856
2 2 1 3 23.168 -3.343 -8.082
3 3 1 3 23.621 12.904 10.468
4 4 1 3 -16.795 -9.498 18.083
5 5 1 3 15.765 -23.923 0.169
6 6 1 3 -21.458 21.119 6.393
7 7 1 3 -13.419 -17.066 -18.994
8 8 1 3 20.466 21.953 -14.837
9 9 1 3 -25.001 -17.544 13.528
10 10 1 3 -6.004 -24.168 -19.141
11 11 1 3 18.543 9.622 22.699
12 12 1 3 8.915 -16.403 -17.862
13 13 1 3 17.866 11.961 -11.363
14 14 1 3 -15.707 3.777 14.652
15 15 1 3 -10.975 17.089 -6.733
16 16 1 3 1.57 -16.147 -8.451
17 17 1 3 -11.514 4.837 -19.732
18 18 1 3 -19.866 11.137 -13.842
19 19 1 3 15.525 20.687 8.287
20 20 1 3 6.47 -20.266 -0.656
21 21 1 3 -15.468 -14.129 15.583
22 22 1 3 4.515 -21.505 20.79
23 23 1 3 -14.164 -16.197 3.985
24 24 1 3 10.957 6.439 8.019
25 25 1 3 4.863 13.271 11.474
26 26 1 3 -11.224 -9.512 -16.6
27 27 1 3 16.96 -12.143 -16.445
28 28 1 3 -8.364 -2.741 24.876
29 29 1 3 -24.091 -23.948 -1.075
30 30 1 3 -24.251 7.051 -8.942
31 31 1 3 2.83 -16.996 -22.359
32 32 1 3 11.745 -19.726 -5.172
33 33 1 3 24.656 22.286 9.578
34 34 1 3 -8.328 8.776 11.836
35 35 1 3 6.553 -13.66 3.992
36 36 1 3 -19.052 20.253 -15.549
37 37 1 3 23.608 -8.39 18.517
38 38 1 3 -24.438 -18.333 8.014
39 39 1 3 22.298 6.546 -1.392
40 40 1 3 19.948 -20.18 -17.225
41 41 1 3 -20.011 -2.278 -3.201
42 42 1 3 -14.833 -20.6 -23.837
43 43 1 3 16.31 -22.529 25.001
44 44 1 3 17.892 18.734 1.048
45 45 1 3 9.659 -16.627 -7.94
46 46 1 3 15.995 -21.208 -20.319
47 47 1 3 -19.945 -2.62 11.174
48 48 1 3 -10.871 -13.17 -13.16
49 49 1 3 19.217 19.115 -24.394
50 50 1 3 -7.69 22.944 8.183
51 51 1 3 -18.42 13.582 2.97
52 52 1 3 17.619 -19.991 -18.699
53 53 1 3 21.544 3.676 13.063
54 54 1 3 4.339 10.858 -11.444
55 55 1 3 7.899 -9.636 3.111
56 56 1 3 23.422 -23.323 -24.718
57 57 1 3 -6.636 -23.664 20.182
58 58 1 3 -0.47 -11.864 9.579
59 59 1 3 -15.107 -20.827 13.327
60 60 1 3 -19.459 -4.849 2.564
61 61 1 3 19.341 3.048 -4.908
62 62 1 3 2.177 -23.001 9.165
63 63 1 3 -15.936 21.084 -10.774
64 64 1 3 20.798 21.904 -23.698
65 65 1 3 -4.013 3.782 -23.823
66 66 1 3 -10.346 4.334 15.961
67 67 1 3 -18.53 7.958 17.738
68 68 1 3 -24.313 19.258 0.948
69 69 1 3 -15.263 -15.297 7.565
70 70 1 3 18.397 -9.438 14.484
71 71 1 3 -3.091 17.53 8.389
72 72 1 3 -13.465 10.465 8.822
73 73 1 3 -4.399 -4.298 1.171
74 74 1 3 13.325 -18.194 -5.134
75 75 1 3 1.257 1.262 -16.694
76 76 1 3 -19.142 23.176 -20.928
77 77 1 3 -1.423 0.078 0.366
78 78 1 3 -16.048 -12.485 -10.816
79 79 1 3 7.131 -22.586 -12.246
80 80 1 3 17.435 -5.249 -1.114
81 81 1 3 -3.849 11.724 23.906
82 82 1 3 23.772 1.804 13.667
83 83 1 3 -7.924 -25.015 4.029
84 84 1 3 -16.135 2.969 2.573
85 85 1 3 6.27 -6.266 -22.444
86 86 1 3 10.807 -7.276 23.406
87 87 1 3 -15.547 -3.061 22.466
88 88 1 3 13.39 -6.519 14.016
89 89 1 3 -9.074 -12.501 -1.527
90 90 1 3 -19.877 21.747 8.194
91 91 1 3 -2.31 12.803 1.775
92 92 1 3 6.375 17.921 17.16
93 93 1 3 -6.05 15.739 -17.435
94 94 1 3 11.855 18.33 8.42
95 95 1 3 1.911 8.931 -25.001
96 96 1 3 3.672 -24.726 -17.13
97 97 1 3 21.676 5.23 -12.69
98 98 1 3 3.795 3.002 -15.14
99 99 1 3 -9.491 22.463 -10.382
100 100 1 3 -7.814 24.996 -8.078
101 101 1 3 15.783 -3.7 0.18
102 102 1 3 5.783 -22.434 -19.153
103 103 1 3 19.289 -18.655 1.456
104 104 1 3 -18.518 10.803 20.809
105 105 1 3 -22.027 1.126 -23.388
106 106 1 3 -1.694 17.631 -4.238
107 107 1 3 -11.957 22.13 20.64
108 108 1 3 -9.391 2.381 -14.181
109 109 1 3 -22.267 -18.318 -0.603
110 110 1 3 16.394 20.757 13.91
111 111 1 3 -4.401 -20.864 -4.582
112 112 1 3 12.526 -23.043 -20.435
113 113 1 3 -11.978 -17.918 -23.07
114 114 1 3 -22.476 9.507 -8.07
115 115 1 3 -7.691 -19.8 8.933
116 116 1 3 12.402 -9.702 -24.742
117 117 1 3 -3.127 0.382 -24.574
118 118 1 3 3.85 -16.629 7.777
119 119 1 3 -12.378 19.551 -25.007
120 120 1 3 -14.774 7.316 -8.31
121 121 1 3 24.126 16.745 -5.438
122 122 1 3 21.29 -17.017 1.977
123 123 1 3 -1.554 -12.219 -17.451
124 124 1 3 -12.552 14.218 -5.173
125 125 1 3 -18.962 3.27 -20.636
126 126 1 3 -14.926 -11.901 5.23
127 127 1 3 -24.839 -20.739 14.31
128 128 1 3 -14.341 -21.857 -9.947
129 129 1 3 -3.248 -3.878 2.999
130 130 1 3 -16.355 19.09 7.525
131 131 1 3 -8.684 -13.576 6.641
132 132 1 3 -23.881 -13.446 19.485
133 133 1 3 17.427 -19.052 2.557
134 134 1 3 23.209 -0.948 18.885
135 135 1 3 16.974 -5.924 20.039
136 136 1 3 -18.7 -9.488 -3.006
137 137 1 3 -1.084 23.36 16.73
138 138 1 3 3.53 -8.585 -22.595
139 139 1 3 -17.093 11.684 -1.963
140 140 1 3 0.602 -8.205 1.097
141 141 1 3 19.64 7.69 -0.659
142 142 1 3 -24.039 -3.513 -3.452
143 143 1 3 -25.001 5.231 11.463
144 144 1 3 -6.748 -6.201 -17.147
145 145 1 3 -12.459 -13.787 -0.499
146 146 1 3 2.186 8.795 11.336
147 147 1 3 0.357 -4.462 -15.665
148 148 2 0.8276 8.369 -13.382 19.414
149 148 3 -0.4569 7.391 -12.4 19.758
150 148 3 -0.4569 8.046 -11.194 20.155
151 148 3 -0.4569 6.56 -12.14 18.628
152 148 3 -0.4569 6.591 -12.884 20.837
153 149 2 0.8276 9.965 -3.73 2.797
154 149 3 -0.4569 8.904 -2.946 2.252
155 149 3 -0.4569 7.945 -2.667 3.272
156 149 3 -0.4569 9.431 -1.718 1.747
157 149 3 -0.4569 8.275 -3.666 1.192
158 150 2 0.8276 0.935 -13.51 22.695
159 150 3 -0.4569 1.706 -13.242 23.866
160 150 3 -0.4569 1.26 -14.079 24.933
161 150 3 -0.4569 3.084 -13.505 23.599
162 150 3 -0.4569 1.546 -11.872 24.238
163 151 2 0.8276 -22.146 4.447 -19.285
164 151 3 -0.4569 -22.487 5.771 -18.875
165 151 3 -0.4569 -23.834 5.791 -18.402
166 151 3 -0.4569 -21.61 6.185 -17.827
167 151 3 -0.4569 -22.358 6.661 -19.984
168 152 2 0.8276 -1.456 10.932 15.859
169 152 3 -0.4569 -2.65 10.361 16.396
170 152 3 -0.4569 -3.779 10.849 15.671
171 152 3 -0.4569 -2.59 8.939 16.284
172 152 3 -0.4569 -2.775 10.726 17.771
173 153 2 0.8276 13.947 -19.939 13.233
174 153 3 -0.4569 14.139 -18.92 12.252
175 153 3 -0.4569 13.54 -17.705 12.704
176 153 3 -0.4569 15.537 -18.713 12.047
177 153 3 -0.4569 13.531 -19.321 11.024
178 154 2 0.8276 12.116 -22.609 -16.15
179 154 3 -0.4569 10.959 -22.599 -15.313
180 154 3 -0.4569 9.785 -22.671 -16.122
181 154 3 -0.4569 10.999 -23.721 -14.432
182 154 3 -0.4569 10.936 -21.393 -14.549
183 155 2 0.8276 16.255 -3.716 -2.161
184 155 3 -0.4569 15.67 -3.185 -3.35
185 155 3 -0.4569 16.187 -3.878 -4.486
186 155 3 -0.4569 14.252 -3.35 -3.297
187 155 3 -0.4569 15.984 -1.796 -3.456
188 156 2 0.8276 -14.248 4.941 6.119
189 156 3 -0.4569 -13.372 4.369 5.147
190 156 3 -0.4569 -13.552 5.031 3.895
191 156 3 -0.4569 -12.019 4.524 5.577
192 156 3 -0.4569 -13.669 2.98 4.999
193 157 2 0.8276 -24.477 10.702 -3.017
194 157 3 -0.4569 -23.886 10.058 -4.146
195 157 3 -0.4569 -24.434 10.603 -5.347
196 157 3 -0.4569 -22.474 10.27 -4.13
197 157 3 -0.4569 -24.158 8.658 -4.092
198 158 2 0.8276 19.448 -20.227 -5.994
199 158 3 -0.4569 19.238 -18.87 -6.384
200 158 3 -0.4569 18.695 -18.832 -7.704
201 158 3 -0.4569 18.327 -18.249 -5.477
202 158 3 -0.4569 20.483 -18.17 -6.362
203 159 2 0.8276 -0.827 -23.045 -5.87
204 159 3 -0.4569 -2.059 -23.765 -5.846
205 159 3 -0.4569 -1.974 -24.824 -4.892
206 159 3 -0.4569 -3.119 -22.881 -5.481
207 159 3 -0.4569 -2.317 -24.31 -7.14
208 160 2 0.8276 17.429 -7.111 -25.0
209 160 3 -0.4569 16.204 -7.35 -24.307
210 160 3 -0.4569 15.447 -6.141 -24.246
211 160 3 -0.4569 15.452 -8.347 -25.0
212 160 3 -0.4569 16.487 -7.801 -22.982
213 161 2 0.8276 0.447 -20.118 -18.328
214 161 3 -0.4569 0.139 -21.456 -18.719
215 161 3 -0.4569 1.107 -22.348 -18.167
216 161 3 -0.4569 -1.159 -21.805 -18.237
217 161 3 -0.4569 0.16 -21.552 -20.143
218 162 2 0.8276 -20.404 16.69 7.807
219 162 3 -0.4569 -20.842 17.854 8.507
220 162 3 -0.4569 -21.02 18.927 7.581
221 162 3 -0.4569 -22.082 17.579 9.158
222 162 3 -0.4569 -19.864 18.222 9.479
223 163 2 0.8276 -14.507 -16.944 -22.327
224 163 3 -0.4569 -13.869 -15.849 -22.986
225 163 3 -0.4569 -12.948 -15.226 -22.09
226 163 3 -0.4569 -13.167 -16.328 -24.133
227 163 3 -0.4569 -14.854 -14.899 -23.392
228 164 2 0.8276 -15.11 -18.372 -8.375
229 164 3 -0.4569 -13.946 -17.606 -8.062
230 164 3 -0.4569 -13.001 -17.717 -9.127
231 164 3 -0.4569 -14.311 -16.236 -7.891
232 164 3 -0.4569 -13.363 -18.099 -6.855
233 165 2 0.8276 12.641 -12.944 7.786
234 165 3 -0.4569 12.479 -13.915 6.752
235 165 3 -0.4569 12.124 -15.172 7.33
236 165 3 -0.4569 11.447 -13.494 5.86
237 165 3 -0.4569 13.705 -14.053 6.033
238 166 2 0.8276 -4.187 -11.658 -11.933
239 166 3 -0.4569 -4.815 -10.412 -12.233
240 166 3 -0.4569 -6.047 -10.651 -12.915
241 166 3 -0.4569 -5.073 -9.705 -11.02
242 166 3 -0.4569 -3.954 -9.634 -13.065
243 167 2 0.8276 -21.65 2.222 -4.813
244 167 3 -0.4569 -21.859 3.361 -5.649
245 167 3 -0.4569 -21.924 4.538 -4.843
246 167 3 -0.4569 -20.777 3.477 -6.573
247 167 3 -0.4569 -23.084 3.206 -6.365
248 168 2 0.8276 9.176 22.671 19.464
249 168 3 -0.4569 9.848 21.794 20.369
250 168 3 -0.4569 10.619 20.846 19.631
251 168 3 -0.4569 10.711 22.555 21.214
252 168 3 -0.4569 8.885 21.106 21.167
253 169 2 0.8276 -13.173 12.602 8.391
254 169 3 -0.4569 -12.503 13.449 9.324
255 169 3 -0.4569 -11.258 13.877 8.771
256 169 3 -0.4569 -13.317 14.589 9.602
257 169 3 -0.4569 -12.263 12.729 10.533
258 170 2 0.8276 6.66 22.083 -10.173
259 170 3 -0.4569 5.818 22.748 -11.114
260 170 3 -0.4569 4.853 23.537 -10.418
261 170 3 -0.4569 6.611 23.594 -11.948
262 170 3 -0.4569 5.147 21.779 -11.92
263 171 2 0.8276 24.487 10.233 8.677
264 171 3 -0.4569 23.384 9.385 8.996
265 171 3 -0.4569 23.551 8.862 10.314
266 171 3 -0.4569 22.172 10.136 8.932
267 171 3 -0.4569 23.327 8.307 8.061
268 172 2 0.8276 -20.07 5.672 4.581
269 172 3 -0.4569 -21.463 5.795 4.294
270 172 3 -0.4569 -22.211 5.694 5.507
271 172 3 -0.4569 -21.714 7.062 3.685
272 172 3 -0.4569 -21.859 4.751 3.404
273 173 2 0.8276 4.892 4.916 17.819
274 173 3 -0.4569 4.396 5.819 16.83
275 173 3 -0.4569 3.982 7.033 17.457
276 173 3 -0.4569 5.428 6.1 15.884
277 173 3 -0.4569 3.284 5.226 16.16
278 174 2 0.8276 6.029 -9.326 -12.427
279 174 3 -0.4569 5.929 -8.195 -13.294
280 174 3 -0.4569 5.649 -7.027 -12.523
281 174 3 -0.4569 7.162 -8.021 -13.992
282 174 3 -0.4569 4.875 -8.409 -14.234
283 175 2 0.8276 -25.0 -9.088 0.478
284 175 3 -0.4569 -23.926 -10.001 0.254
285 175 3 -0.4569 -23.014 -9.442 -0.692
286 175 3 -0.4569 -23.244 -10.245 1.484
287 175 3 -0.4569 -24.444 -11.23 -0.255
288 176 2 0.8276 -4.972 -1.573 -0.706
289 176 3 -0.4569 -5.711 -2.523 -1.474
290 176 3 -0.4569 -6.428 -3.392 -0.598
291 176 3 -0.4569 -6.632 -1.835 -2.321
292 176 3 -0.4569 -4.811 -3.29 -2.274
293 177 2 0.8276 -8.513 -18.699 -19.859
294 177 3 -0.4569 -8.426 -17.314 -19.523
295 177 3 -0.4569 -9.385 -17.007 -18.511
296 177 3 -0.4569 -7.114 -17.023 -19.039
297 177 3 -0.4569 -8.691 -16.525 -20.684
298 178 2 0.8276 9.597 14.344 19.823
299 178 3 -0.4569 10.491 14.815 18.815
300 178 3 -0.4569 11.771 15.071 19.393
301 178 3 -0.4569 10.62 13.826 17.793
302 178 3 -0.4569 9.975 16.02 18.248
303 179 2 0.8276 -13.279 -7.756 2.51
304 179 3 -0.4569 -13.466 -8.416 1.257
305 179 3 -0.4569 -12.203 -8.586 0.615
306 179 3 -0.4569 -14.063 -9.694 1.478
307 179 3 -0.4569 -14.32 -7.628 0.427
308 180 2 0.8276 -8.623 21.391 18.606
309 180 3 -0.4569 -10.017 21.218 18.861
310 180 3 -0.4569 -10.705 22.44 18.593
311 180 3 -0.4569 -10.53 20.188 18.016
312 180 3 -0.4569 -10.209 20.854 20.228
313 181 2 0.8276 10.789 8.74 -16.276
314 181 3 -0.4569 9.477 8.714 -16.839
315 181 3 -0.4569 9.531 9.155 -18.196
316 181 3 -0.4569 8.966 7.382 -16.791
317 181 3 -0.4569 8.622 9.58 -16.091
318 182 2 0.8276 7.474 10.574 -0.56
319 182 3 -0.4569 8.693 9.992 -1.023
320 182 3 -0.4569 8.739 8.617 -0.644
321 182 3 -0.4569 8.758 10.096 -2.446
322 182 3 -0.4569 9.8 10.683 -0.444
323 183 2 0.8276 -7.996 -20.808 -20.21
324 183 3 -0.4569 -6.568 -20.8 -20.196
325 183 3 -0.4569 -6.079 -20.649 -21.529
326 183 3 -0.4569 -6.106 -19.712 -19.395
327 183 3 -0.4569 -6.091 -22.03 -19.651
328 184 2 0.8276 -16.116 -17.1 3.52
329 184 3 -0.4569 -16.412 -17.544 4.844
330 184 3 -0.4569 -15.578 -18.656 5.172
331 184 3 -0.4569 -16.173 -16.481 5.767
332 184 3 -0.4569 -17.782 -17.94 4.918
333 185 2 0.8276 -21.716 6.73 20.182
334 185 3 -0.4569 -22.632 6.349 19.155
335 185 3 -0.4569 -23.563 5.399 19.675
336 185 3 -0.4569 -23.338 7.502 18.696
337 185 3 -0.4569 -21.914 5.765 18.068
338 186 2 0.8276 25.0 -6.892 12.036
339 186 3 -0.4569 24.515 -5.607 12.424
340 186 3 -0.4569 25.0 -4.62 11.513
341 186 3 -0.4569 23.088 -5.611 12.405
342 186 3 -0.4569 24.974 -5.304 13.742
343 187 2 0.8276 19.895 17.288 8.544
344 187 3 -0.4569 21.116 17.993 8.32
345 187 3 -0.4569 21.48 18.704 9.503
346 187 3 -0.4569 22.147 17.063 7.987
347 187 3 -0.4569 20.942 18.917 7.245
348 188 2 0.8276 18.553 8.499 6.126
349 188 3 -0.4569 17.783 9.539 5.522
350 188 3 -0.4569 17.474 9.182 4.174
351 188 3 -0.4569 16.572 9.722 6.255
352 188 3 -0.4569 18.535 10.753 5.531
353 189 2 0.8276 4.946 -23.774 14.986
354 189 3 -0.4569 4.394 -22.847 15.921
355 189 3 -0.4569 5.449 -22.225 16.655
356 189 3 -0.4569 3.65 -21.85 15.221
357 189 3 -0.4569 3.531 -23.54 16.824
358 190 2 0.8276 9.316 -7.35 -14.938
359 190 3 -0.4569 10.636 -7.059 -15.398
360 190 3 -0.4569 10.658 -5.763 -15.996
361 190 3 -0.4569 11.542 -7.088 -14.294
362 190 3 -0.4569 11.03 -8.034 -16.363
363 191 2 0.8276 20.799 4.725 0.466
364 191 3 -0.4569 19.521 4.148 0.736
365 191 3 -0.4569 19.102 4.512 2.051
366 191 3 -0.4569 18.572 4.629 -0.216
367 191 3 -0.4569 19.612 2.726 0.642
368 192 2 0.8276 -20.697 -7.718 -3.758
369 192 3 -0.4569 -21.345 -6.916 -2.77
370 192 3 -0.4569 -21.201 -5.536 -3.107
371 192 3 -0.4569 -22.732 -7.252 -2.721
372 192 3 -0.4569 -20.75 -7.16 -1.495
373 193 2 0.8276 -3.879 -15.935 -8.666
374 193 3 -0.4569 -3.755 -16.824 -9.776
375 193 3 -0.4569 -3.777 -18.174 -9.311
376 193 3 -0.4569 -4.842 -16.614 -10.678
377 193 3 -0.4569 -2.521 -16.573 -10.45
378 194 2 0.8276 -0.239 -7.512 6.796
379 194 3 -0.4569 0.033 -6.588 7.85
380 194 3 -0.4569 0.194 -5.278 7.306
381 194 3 -0.4569 -1.055 -6.588 8.775
382 194 3 -0.4569 1.231 -6.974 8.524
383 195 2 0.8276 -1.394 -17.091 25.0
384 195 3 -0.4569 -2.411 -17.661 24.176
385 195 3 -0.4569 -3.428 -18.231 25.0
386 195 3 -0.4569 -2.981 -16.644 23.352
387 195 3 -0.4569 -1.841 -18.678 23.352
388 196 2 0.8276 5.179 1.575 -2.429
389 196 3 -0.4569 5.853 0.35 -2.718
390 196 3 -0.4569 7.039 0.261 -1.929
391 196 3 -0.4569 4.995 -0.749 -2.414
392 196 3 -0.4569 6.2 0.315 -4.103
393 197 2 0.8276 -7.086 -17.669 0.081
394 197 3 -0.4569 -6.893 -16.501 0.879
395 197 3 -0.4569 -5.69 -16.634 1.635
396 197 3 -0.4569 -6.798 -15.356 0.031
397 197 3 -0.4569 -7.999 -16.345 1.768
398 198 2 0.8276 -22.91 20.73 -3.315
399 198 3 -0.4569 -23.957 20.265 -2.462
400 198 3 -0.4569 -25.009 19.716 -3.256
401 198 3 -0.4569 -23.446 19.258 -1.588
402 198 3 -0.4569 -24.462 21.355 -1.691
403 199 2 0.8276 12.983 -22.148 21.447
404 199 3 -0.4569 13.951 -21.465 22.244
405 199 3 -0.4569 14.043 -20.105 21.82
406 199 3 -0.4569 13.556 -21.51 23.615
407 199 3 -0.4569 15.223 -22.097 22.094
408 200 2 0.8276 12.594 -0.551 3.638
409 200 3 -0.4569 14.014 -0.584 3.785
410 200 3 -0.4569 14.588 0.543 3.122
411 200 3 -0.4569 14.349 -0.541 5.172
412 200 3 -0.4569 14.525 -1.785 3.208
413 201 2 0.8276 14.005 14.674 -3.781
414 201 3 -0.4569 14.195 14.89 -5.18
415 201 3 -0.4569 14.289 13.631 -5.848
416 201 3 -0.4569 13.087 15.624 -5.702
417 201 3 -0.4569 15.398 15.63 -5.388
418 202 2 0.8276 -22.025 -22.319 13.082
419 202 3 -0.4569 -21.809 -21.159 13.886
420 202 3 -0.4569 -22.455 -21.327 15.148
421 202 3 -0.4569 -20.407 -20.976 14.09
422 202 3 -0.4569 -22.348 -20.014 13.225
423 203 2 0.8276 -16.62 1.24 7.125
424 203 3 -0.4569 -17.043 2.428 6.454
425 203 3 -0.4569 -17.621 3.329 7.4
426 203 3 -0.4569 -15.919 3.048 5.831
427 203 3 -0.4569 -18.014 2.093 5.462
428 204 2 0.8276 -15.781 13.392 1.733
429 204 3 -0.4569 -16.295 14.674 1.372
430 204 3 -0.4569 -15.652 15.127 0.18
431 204 3 -0.4569 -17.702 14.576 1.145
432 204 3 -0.4569 -16.046 15.602 2.429
433 205 2 0.8276 11.481 7.453 -21.302
434 205 3 -0.4569 11.293 6.219 -20.61
435 205 3 -0.4569 12.236 5.258 -21.086
436 205 3 -0.4569 11.487 6.423 -19.211
437 205 3 -0.4569 9.968 5.74 -20.843
438 206 2 0.8276 -10.748 -12.413 17.58
439 206 3 -0.4569 -11.766 -12.811 18.498
440 206 3 -0.4569 -11.179 -13.091 19.769
441 206 3 -0.4569 -12.72 -11.758 18.637
442 206 3 -0.4569 -12.418 -13.982 18.007
443 207 2 0.8276 -16.754 23.914 0.935
444 207 3 -0.4569 -17.348 23.027 -0.013
445 207 3 -0.4569 -17.695 21.801 0.632
446 207 3 -0.4569 -18.524 23.629 -0.555
447 207 3 -0.4569 -16.419 22.764 -1.065
448 208 2 0.8276 -17.557 -13.799 -17.74
449 208 3 -0.4569 -16.594 -12.949 -18.364
450 208 3 -0.4569 -16.209 -13.507 -19.621
451 208 3 -0.4569 -17.164 -11.657 -18.572
452 208 3 -0.4569 -15.445 -12.834 -17.523
453 209 2 0.8276 -20.773 -16.09 -2.409
454 209 3 -0.4569 -21.664 -16.164 -3.522
455 209 3 -0.4569 -23.003 -16.324 -3.051
456 209 3 -0.4569 -21.57 -14.963 -4.287
457 209 3 -0.4569 -21.312 -17.28 -4.34
458 210 2 0.8276 16.497 -23.908 -9.331
459 210 3 -0.4569 15.562 -23.567 -10.355
460 210 3 -0.4569 14.249 -23.957 -9.952
461 210 3 -0.4569 15.592 -22.157 -10.576
462 210 3 -0.4569 15.91 -24.246 -11.562
463 211 2 0.8276 0.436 -6.56 -14.996
464 211 3 -0.4569 -0.397 -6.682 -13.842
465 211 3 -0.4569 0.2 -7.591 -12.917
466 211 3 -0.4569 -0.543 -5.403 -13.225
467 211 3 -0.4569 -1.68 -7.173 -14.231
468 212 2 0.8276 0.819 12.393 -16.603
469 212 3 -0.4569 -0.112 13.078 -17.441
470 212 3 -0.4569 -1.035 13.806 -16.632
471 212 3 -0.4569 0.591 13.983 -18.293
472 212 3 -0.4569 -0.823 12.129 -18.237
473 213 2 0.8276 15.298 -3.139 20.835
474 213 3 -0.4569 14.938 -3.629 19.543
475 213 3 -0.4569 14.495 -2.544 18.728
476 213 3 -0.4569 16.072 -4.248 18.935
477 213 3 -0.4569 13.886 -4.586 19.674
478 214 2 0.8276 1.698 -24.271 -11.709
479 214 3 -0.4569 2.789 -23.569 -11.113
480 214 3 -0.4569 2.964 -24.015 -9.768
481 214 3 -0.4569 3.981 -23.824 -11.856
482 214 3 -0.4569 2.514 -22.168 -11.118
483 215 2 0.8276 -7.728 -11.827 16.633
484 215 3 -0.4569 -6.465 -11.405 16.118
485 215 3 -0.4569 -6.63 -10.19 15.386
486 215 3 -0.4569 -5.559 -11.19 17.2
487 215 3 -0.4569 -5.944 -12.414 15.253
488 216 2 0.8276 13.085 0.558 7.186
489 216 3 -0.4569 13.996 1.657 7.188
490 216 3 -0.4569 14.963 1.473 8.223
491 216 3 -0.4569 14.659 1.728 5.926
492 216 3 -0.4569 13.278 2.87 7.419
493 217 2 0.8276 -22.885 12.929 -21.798
494 217 3 -0.4569 -23.223 13.971 -20.882
495 217 3 -0.4569 -22.667 13.677 -19.6
496 217 3 -0.4569 -22.695 15.21 -21.357
497 217 3 -0.4569 -24.643 14.068 -20.774
498 218 2 0.8276 11.164 -11.651 -18.324
499 218 3 -0.4569 10.244 -10.997 -17.45
500 218 3 -0.4569 10.24 -9.596 -17.724
501 218 3 -0.4569 8.934 -11.525 -17.656
502 218 3 -0.4569 10.639 -11.215 -16.095
503 219 2 0.8276 -15.409 17.271 -7.545
504 219 3 -0.4569 -14.216 17.173 -6.766
505 219 3 -0.4569 -14.402 17.848 -5.522
506 219 3 -0.4569 -13.92 15.798 -6.522
507 219 3 -0.4569 -13.134 17.775 -7.477
508 220 2 0.8276 18.831 -12.48 2.588
509 220 3 -0.4569 17.8 -13.43 2.318
510 220 3 -0.4569 16.544 -12.758 2.221
511 220 3 -0.4569 18.078 -14.098 1.087
512 220 3 -0.4569 17.746 -14.386 3.378
513 221 2 0.8276 12.422 1.151 -0.203
514 221 3 -0.4569 11.202 1.387 0.5
515 221 3 -0.4569 10.973 0.326 1.427
516 221 3 -0.4569 11.293 2.625 1.206
517 221 3 -0.4569 10.121 1.447 -0.431
518 222 2 0.8276 21.87 -12.843 -15.215
519 222 3 -0.4569 23.23 -12.892 -15.649
520 222 3 -0.4569 23.861 -14.053 -15.11
521 222 3 -0.4569 23.271 -12.947 -17.075
522 222 3 -0.4569 23.916 -11.724 -15.197
523 223 2 0.8276 2.65 -2.069 -18.636
524 223 3 -0.4569 2.198 -1.058 -19.537
525 223 3 -0.4569 1.169 -0.29 -18.914
526 223 3 -0.4569 3.289 -0.203 -19.878
527 223 3 -0.4569 1.684 -1.67 -20.72
528 224 2 0.8276 18.68 15.226 -8.488
529 224 3 -0.4569 18.802 16.144 -9.575
530 224 3 -0.4569 17.504 16.576 -9.983
531 224 3 -0.4569 19.57 17.274 -9.16
532 224 3 -0.4569 19.455 15.501 -10.67
533 225 2 0.8276 -11.932 12.497 20.157
534 225 3 -0.4569 -11.378 13.533 20.968
535 225 3 -0.4569 -10.909 14.593 20.134
536 225 3 -0.4569 -12.382 14.033 21.852
537 225 3 -0.4569 -10.289 13.01 21.73
538 226 2 0.8276 21.644 -17.057 -8.105
539 226 3 -0.4569 21.646 -15.729 -8.629
540 226 3 -0.4569 21.092 -15.735 -9.945
541 226 3 -0.4569 20.862 -14.884 -7.787
542 226 3 -0.4569 22.987 -15.24 -8.679
543 227 2 0.8276 11.766 -10.611 2.038
544 227 3 -0.4569 10.974 -10.832 3.205
545 227 3 -0.4569 10.548 -9.577 3.736
546 227 3 -0.4569 9.83 -11.616 2.863
547 227 3 -0.4569 11.75 -11.523 4.183
548 228 2 0.8276 -19.387 19.774 -10.267
549 228 3 -0.4569 -19.741 18.673 -9.429
550 228 3 -0.4569 -20.853 17.981 -9.996
551 228 3 -0.4569 -18.63 17.782 -9.322
552 228 3 -0.4569 -20.091 19.156 -8.132
553 229 2 0.8276 10.028 22.931 11.311
554 229 3 -0.4569 10.333 22.813 12.701
555 229 3 -0.4569 11.34 23.764 13.05
556 229 3 -0.4569 9.156 23.064 13.469
557 229 3 -0.4569 10.809 21.495 12.974
558 230 2 0.8276 -16.665 2.12 9.141
559 230 3 -0.4569 -18.071 2.041 9.381
560 230 3 -0.4569 -18.322 1.111 10.435
561 230 3 -0.4569 -18.562 3.328 9.756
562 230 3 -0.4569 -18.733 1.605 8.194
563 231 2 0.8276 11.738 -16.442 12.465
564 231 3 -0.4569 10.893 -17.591 12.383
565 231 3 -0.4569 11.678 -18.737 12.055
566 231 3 -0.4569 10.249 -17.798 13.64
567 231 3 -0.4569 9.907 -17.384 11.37
568 232 2 0.8276 15.273 12.892 -4.024
569 232 3 -0.4569 14.116 12.108 -3.731
570 232 3 -0.4569 13.266 12.829 -2.839
571 232 3 -0.4569 13.41 11.83 -4.94
572 232 3 -0.4569 14.516 10.881 -3.12
573 233 2 0.8276 -21.749 -6.318 8.342
574 233 3 -0.4569 -21.184 -7.232 9.282
575 233 3 -0.4569 -20.622 -8.345 8.586
576 233 3 -0.4569 -20.162 -6.573 10.03
577 233 3 -0.4569 -22.203 -7.692 10.17
578 234 2 0.8276 -16.564 22.745 13.779
579 234 3 -0.4569 -15.844 21.865 14.642
580 234 3 -0.4569 -14.783 21.246 13.914
581 234 3 -0.4569 -15.301 22.608 15.734
582 234 3 -0.4569 -16.727 20.861 15.141
583 235 2 0.8276 13.793 9.725 18.361
584 235 3 -0.4569 14.0 10.328 17.084
585 235 3 -0.4569 12.809 11.002 16.677
586 235 3 -0.4569 15.072 11.267 17.17
587 235 3 -0.4569 14.326 9.319 16.128
588 236 2 0.8276 7.7 16.235 -10.526
589 236 3 -0.4569 8.401 16.751 -9.395
590 236 3 -0.4569 9.614 17.369 -9.827
591 236 3 -0.4569 7.586 17.717 -8.73
592 236 3 -0.4569 8.705 15.684 -8.496
593 237 2 0.8276 19.664 -22.321 -13.547
594 237 3 -0.4569 20.957 -22.31 -14.151
595 237 3 -0.4569 21.953 -22.53 -13.151
596 237 3 -0.4569 21.033 -23.344 -15.133
597 237 3 -0.4569 21.18 -21.044 -14.774
598 238 2 0.8276 18.214 21.539 -17.687
599 238 3 -0.4569 17.832 22.648 -16.873
600 238 3 -0.4569 17.39 23.72 -17.706
601 238 3 -0.4569 16.771 22.255 -16.002
602 238 3 -0.4569 18.951 23.078 -16.098
603 239 2 0.8276 -0.407 -18.93 18.492
604 239 3 -0.4569 0.698 -18.951 17.588
605 239 3 -0.4569 1.901 -19.214 18.312
606 239 3 -0.4569 0.496 -19.974 16.613
607 239 3 -0.4569 0.803 -17.685 16.937
608 240 2 0.8276 -23.769 -1.931 7.654
609 240 3 -0.4569 -22.519 -1.366 7.258
610 240 3 -0.4569 -21.586 -1.473 8.333
611 240 3 -0.4569 -22.018 -2.07 6.121
612 240 3 -0.4569 -22.703 0.01 6.923
613 241 2 0.8276 -24.916 12.919 -12.708
614 241 3 -0.4569 -24.354 11.878 -11.908
615 241 3 -0.4569 -24.559 10.62 -12.551
616 241 3 -0.4569 -22.954 12.106 -11.746
617 241 3 -0.4569 -24.987 11.867 -10.629
618 242 2 0.8276 -4.67 -13.917 -11.725
619 242 3 -0.4569 -3.915 -14.429 -12.823
620 242 3 -0.4569 -4.786 -15.112 -13.724
621 242 3 -0.4569 -3.277 -13.349 -13.506
622 242 3 -0.4569 -2.925 -15.336 -12.338
623 243 2 0.8276 5.864 -19.654 5.08
624 243 3 -0.4569 4.781 -20.077 5.908
625 243 3 -0.4569 3.692 -20.502 5.088
626 243 3 -0.4569 5.207 -21.162 6.732
627 243 3 -0.4569 4.359 -18.989 6.732
628 244 2 0.8276 20.864 -4.444 3.725
629 244 3 -0.4569 19.744 -5.016 3.049
630 244 3 -0.4569 20.112 -5.337 1.707
631 244 3 -0.4569 19.335 -6.204 3.727
632 244 3 -0.4569 18.667 -4.08 3.035
633 245 2 0.8276 -14.267 -15.965 11.357
634 245 3 -0.4569 -14.967 -14.98 12.117
635 245 3 -0.4569 -15.726 -14.15 11.238
636 245 3 -0.4569 -15.846 -15.626 13.038
637 245 3 -0.4569 -14.029 -14.178 12.836
638 246 2 0.8276 11.085 14.507 -6.808
639 246 3 -0.4569 10.052 14.164 -5.884
640 246 3 -0.4569 10.631 13.579 -4.716
641 246 3 -0.4569 9.33 15.34 -5.519
642 246 3 -0.4569 9.161 13.228 -6.492
643 247 2 0.8276 8.191 6.363 15.379
644 247 3 -0.4569 7.965 7.75 15.633
645 247 3 -0.4569 6.616 7.944 16.057
646 247 3 -0.4569 8.855 8.197 16.657
647 247 3 -0.4569 8.2 8.497 14.438
648 248 2 0.8276 -18.922 0.13 -18.239
649 248 3 -0.4569 -18.67 1.097 -19.259
650 248 3 -0.4569 -18.533 2.389 -18.667
651 248 3 -0.4569 -17.466 0.76 -19.947
652 248 3 -0.4569 -19.759 1.11 -20.182
653 249 2 0.8276 -0.709 -13.335 -3.431
654 249 3 -0.4569 -1.503 -12.209 -3.807
655 249 3 -0.4569 -1.312 -11.154 -2.865
656 249 3 -0.4569 -1.112 -11.764 -5.106
657 249 3 -0.4569 -2.881 -12.585 -3.828
658 250 2 0.8276 -0.7 24.195 -22.805
659 250 3 -0.4569 -0.749 22.835 -22.372
660 250 3 -0.4569 -2.043 22.295 -22.644
661 250 3 -0.4569 0.239 22.078 -23.07
662 250 3 -0.4569 -0.494 22.774 -20.968
663 251 2 0.8276 17.242 -0.483 1.881
664 251 3 -0.4569 18.275 -1.469 1.898
665 251 3 -0.4569 18.694 -1.697 3.243
666 251 3 -0.4569 17.778 -2.687 1.342
667 251 3 -0.4569 19.384 -1.01 1.125
668 252 2 0.8276 -6.078 -5.634 -19.614
669 252 3 -0.4569 -5.409 -4.605 -18.885
670 252 3 -0.4569 -6.24 -4.165 -17.81
671 252 3 -0.4569 -4.183 -5.115 -18.36
672 252 3 -0.4569 -5.136 -3.507 -19.755
673 253 2 0.8276 -15.284 24.107 4.046
674 253 3 -0.4569 -14.255 23.59 4.889
675 253 3 -0.4569 -13.235 22.996 4.086
676 253 3 -0.4569 -13.694 24.652 5.661
677 253 3 -0.4569 -14.806 22.605 5.763
678 254 2 0.8276 17.904 -22.293 0.657
679 254 3 -0.4569 18.688 -23.095 -0.228
680 254 3 -0.4569 17.831 -23.959 -0.973
681 254 3 -0.4569 19.407 -22.248 -1.125
682 254 3 -0.4569 19.61 -23.877 0.531
683 255 2 0.8276 19.625 -7.082 -21.26
684 255 3 -0.4569 20.522 -6.656 -20.234
685 255 3 -0.4569 19.829 -5.815 -19.312
686 255 3 -0.4569 21.033 -7.797 -19.545
687 255 3 -0.4569 21.603 -5.93 -20.82
688 256 2 0.8276 6.818 22.128 -15.045
689 256 3 -0.4569 6.295 21.23 -16.024
690 256 3 -0.4569 5.784 20.064 -15.378
691 256 3 -0.4569 5.244 21.874 -16.745
692 256 3 -0.4569 7.333 20.855 -16.93
693 257 2 0.8276 -10.062 -14.908 15.216
694 257 3 -0.4569 -11.141 -15.33 14.382
695 257 3 -0.4569 -12.237 -15.748 15.196
696 257 3 -0.4569 -11.553 -14.244 13.552
697 257 3 -0.4569 -10.713 -16.419 13.564
698 258 2 0.8276 13.023 -13.116 0.354
699 258 3 -0.4569 13.96 -13.778 -0.496
700 258 3 -0.4569 15.083 -14.206 0.274
701 258 3 -0.4569 13.336 -14.912 -1.099
702 258 3 -0.4569 14.397 -12.877 -1.514
703 259 2 0.8276 19.039 -24.229 -14.448
704 259 3 -0.4569 18.172 -23.292 -15.087
705 259 3 -0.4569 18.93 -22.467 -15.971
706 259 3 -0.4569 17.177 -23.997 -15.831
707 259 3 -0.4569 17.54 -22.478 -14.099
708 260 2 0.8276 -11.858 -8.311 -10.943
709 260 3 -0.4569 -12.376 -7.691 -9.766
710 260 3 -0.4569 -11.306 -7.414 -8.862
711 260 3 -0.4569 -13.029 -6.471 -10.119
712 260 3 -0.4569 -13.312 -8.569 -9.139
713 261 2 0.8276 12.926 24.614 1.676
714 261 3 -0.4569 12.97 23.213 1.403
715 261 3 -0.4569 14.144 22.911 0.649
716 261 3 -0.4569 12.995 22.49 2.634
717 261 3 -0.4569 11.814 22.839 0.654
718 262 2 0.8276 -16.266 20.567 -1.187
719 262 3 -0.4569 -17.444 20.541 -1.995
720 262 3 -0.4569 -18.467 21.316 -1.37
721 262 3 -0.4569 -17.151 21.089 -3.28
722 262 3 -0.4569 -17.89 19.193 -2.141
723 263 2 0.8276 16.121 -2.175 23.173
724 263 3 -0.4569 17.072 -1.651 22.245
725 263 3 -0.4569 18.255 -1.262 22.944
726 263 3 -0.4569 17.397 -2.653 21.281
727 263 3 -0.4569 16.515 -0.516 21.583
728 264 2 0.8276 -2.606 -8.255 16.969
729 264 3 -0.4569 -3.627 -8.518 17.931
730 264 3 -0.4569 -3.689 -9.921 18.189
731 264 3 -0.4569 -3.328 -7.825 19.143
732 264 3 -0.4569 -4.885 -8.072 17.425
733 265 2 0.8276 -5.319 3.689 22.218
734 265 3 -0.4569 -4.088 2.982 22.068
735 265 3 -0.4569 -4.238 1.969 21.073
736 265 3 -0.4569 -3.063 3.892 21.668
737 265 3 -0.4569 -3.731 2.378 23.311
738 266 2 0.8276 -9.329 -12.77 3.897
739 266 3 -0.4569 -9.307 -14.185 3.707
740 266 3 -0.4569 -8.257 -14.755 4.489
741 266 3 -0.4569 -10.559 -14.739 4.114
742 266 3 -0.4569 -9.084 -14.476 2.327
743 267 2 0.8276 3.795 3.171 12.249
744 267 3 -0.4569 4.56 2.821 11.096
745 267 3 -0.4569 5.284 3.964 10.639
746 267 3 -0.4569 5.477 1.78 11.431
747 267 3 -0.4569 3.684 2.37 10.063
748 268 2 0.8276 -0.522 23.469 11.399
749 268 3 -0.4569 -1.731 22.975 11.977
750 268 3 -0.4569 -2.376 22.096 11.056
751 268 3 -0.4569 -1.429 22.266 13.179
752 268 3 -0.4569 -2.597 24.071 12.275
753 269 2 0.8276 -15.171 11.24 -18.454
754 269 3 -0.4569 -15.952 10.765 -17.358
755 269 3 -0.4569 -17.32 10.667 -17.755
756 269 3 -0.4569 -15.479 9.479 -16.958
757 269 3 -0.4569 -15.839 11.676 -16.264
758 270 2 0.8276 -24.513 -8.331 -18.812
759 270 3 -0.4569 -23.363 -8.389 -19.657
760 270 3 -0.4569 -22.183 -8.419 -18.855
761 270 3 -0.4569 -23.422 -9.568 -20.46
762 270 3 -0.4569 -23.336 -7.238 -20.501
763 271 2 0.8276 13.323 -13.924 3.255
764 271 3 -0.4569 12.012 -14.416 2.977
765 271 3 -0.4569 11.804 -15.641 3.681
766 271 3 -0.4569 11.044 -13.456 3.399
767 271 3 -0.4569 11.877 -14.645 1.574
768 272 2 0.8276 5.519 14.053 8.672
769 272 3 -0.4569 5.449 15.242 7.886
770 272 3 -0.4569 5.998 14.992 6.592
771 272 3 -0.4569 4.085 15.645 7.754
772 272 3 -0.4569 6.192 16.28 8.526
773 273 2 0.8276 -18.068 -0.518 -5.158
774 273 3 -0.4569 -19.144 0.384 -5.418
775 273 3 -0.4569 -18.657 1.508 -6.151