LAMMPS Description

     8198  atoms
     7486  bonds
     12772  angles
     9500  dihedrals
     3200  impropers

     28  atom types
     25  bond types
     41  angle types
     38  dihedral types
     12  improper types

  -25.0 25.0 xlo xhi
  -25.0 25.0 ylo yhi
  -25.0 25.0 zlo zhi

Masses

1 6.94  # Li
2 30.974  # P
3 18.998  # F
4 12.011  # type1_c_unk_6dedc
5 12.011  # type2_c_unk_6dedc
6 15.999  # type3_o_unk_6dedc
7 12.011  # type4_c_unk_6dedc
8 15.999  # type5_o_unk_6dedc
9 15.999  # type6_o_unk_6dedc
10 1.008  # type7_h_unk_6dedc
11 1.008  # type8_h_unk_6dedc
12 1.008  # type9_h_unk_6dedc
13 1.008  # type10_h_unk_6dedc
14 12.011  # type1_c_unk_29441
15 12.011  # type2_c_unk_29441
16 15.999  # type3_o_unk_29441
17 12.011  # type4_c_unk_29441
18 15.999  # type5_o_unk_29441
19 15.999  # type6_o_unk_29441
20 12.011  # type7_c_unk_29441
21 1.008  # type8_h_unk_29441
22 1.008  # type9_h_unk_29441
23 1.008  # type10_h_unk_29441
24 1.008  # type11_h_unk_29441
25 1.008  # type12_h_unk_29441
26 1.008  # type13_h_unk_29441
27 1.008  # type14_h_unk_29441
28 1.008  # type15_h_unk_29441

Atoms  # full

1 1 1 1 -17.112 1.014 -10.684
2 2 1 1 16.744 23.352 24.34
3 3 1 1 16.354 -14.783 -22.587
4 4 1 1 3.629 -17.789 8.111
5 5 1 1 16.114 -11.644 22.39
6 6 1 1 20.111 -5.014 10.978
7 7 1 1 -24.872 21.712 10.467
8 8 1 1 7.803 -18.98 11.202
9 9 1 1 11.752 10.282 -10.223
10 10 1 1 -20.568 -24.505 -12.628
11 11 1 1 -4.766 12.416 9.784
12 12 1 1 17.947 12.452 -12.752
13 13 1 1 3.916 16.302 18.558
14 14 1 1 -5.182 -8.247 20.824
15 15 1 1 -9.895 9.552 -5.628
16 16 1 1 -8.533 -24.503 -11.294
17 17 1 1 15.222 16.523 10.679
18 18 1 1 -18.019 -15.761 10.995
19 19 1 1 -9.99 18.096 -19.117
20 20 1 1 5.772 -21.091 -24.202
21 21 1 1 12.356 -16.602 6.19
22 22 1 1 -24.067 18.82 12.723
23 23 1 1 16.572 -9.874 23.712
24 24 1 1 -21.152 -18.543 0.425
25 25 1 1 -21.419 -4.667 -6.187
26 26 1 1 10.303 -5.172 -8.962
27 27 1 1 -1.564 -16.437 15.776
28 28 1 1 19.63 -1.072 21.626
29 29 1 1 11.72 -18.152 1.625
30 30 1 1 5.459 -4.437 5.955
31 31 1 1 10.856 -10.262 -10.499
32 32 1 1 -21.278 7.527 -9.654
33 33 1 1 -1.718 11.312 18.874
34 34 1 1 -6.572 -10.772 -6.861
35 35 1 1 18.922 0.083 -21.528
36 36 1 1 3.904 18.376 8.467
37 37 1 1 22.861 11.3 24.169
38 38 1 1 -14.191 -0.011 6.245
39 39 1 1 -0.564 1.813 -12.566
40 40 1 1 -24.495 8.619 8.739
41 41 1 1 -2.134 20.555 6.462
42 42 1 1 22.467 0.598 14.89
43 43 1 1 -0.453 -4.061 8.706
44 44 1 1 -6.201 -16.74 12.732
45 45 1 1 -16.975 -21.913 -17.218
46 46 1 1 14.444 -11.627 9.513
47 47 1 1 5.082 21.954 7.41
48 48 1 1 -4.349 -1.467 4.101
49 49 1 1 -11.006 -19.906 23.792
50 50 1 1 -4.693 16.592 16.777
51 51 1 1 -18.242 10.701 23.417
52 52 1 1 23.311 3.825 -7.514
53 53 1 1 6.428 -13.215 7.679
54 54 1 1 -24.918 -13.061 -8.023
55 55 1 1 -11.26 -24.291 -13.228
56 56 1 1 1.39 2.436 12.466
57 57 1 1 24.195 6.707 -13.011
58 58 1 1 -7.521 -23.034 -23.882
59 59 1 1 -14.238 -6.94 2.437
60 60 1 1 0.36 11.705 -1.895
61 61 1 1 -11.458 -19.188 2.481
62 62 1 1 22.846 21.454 0.892
63 63 1 1 0.255 12.413 6.27
64 64 1 1 21.787 22.177 -23.606
65 65 1 1 -10.861 13.191 24.178
66 66 1 1 -20.064 -8.625 7.204
67 67 1 1 18.495 -20.945 19.86
68 68 1 1 16.281 -2.404 -1.818
69 69 1 1 8.048 19.285 -9.741
70 70 1 1 24.098 23.818 -18.659
71 71 1 1 12.557 23.839 -23.154
72 72 1 1 -19.089 23.341 -2.119
73 73 1 1 1.873 23.648 16.543
74 74 1 1 16.234 14.768 -8.269
75 75 1 1 6.513 9.844 21.162
76 76 1 1 0.75 -20.676 15.765
77 77 1 1 6.707 6.653 -8.208
78 78 1 1 -23.723 4.35 7.531
79 79 1 1 -11.21 11.302 4.221
80 80 1 1 1.587 14.887 -9.068
81 81 1 1 23.804 -9.764 2.622
82 82 1 1 16.726 7.861 3.757
83 83 1 1 0.44 21.031 -1.111
84 84 1 1 4.144 4.32 -2.76
85 85 1 1 -7.27 8.297 14.339
86 86 1 1 21.533 -8.131 -19.667
87 87 1 1 -5.159 3.018 -5.377
88 88 1 1 -7.032 -16.792 22.109
89 89 1 1 -22.768 23.315 12.743
90 90 1 1 -9.642 17.461 -9.179
91 91 1 1 19.349 -16.521 15.217
92 92 1 1 -3.626 5.284 -23.581
93 93 1 1 0.754 13.909 -12.583
94 94 1 1 -11.341 -17.185 12.48
95 95 1 1 -10.569 -15.024 1.671
96 96 1 1 -6.37 5.004 7.493
97 97 1 1 11.267 15.065 3.847
98 98 1 1 0.346 22.835 -21.278
99 99 1 1 -10.124 10.864 14.347
100 100 1 1 -3.039 -3.915 -12.96
101 101 1 1 3.746 -24.533 9.947
102 102 1 1 -5.856 -12.923 -5.537
103 103 1 1 -2.008 1.509 -22.576
104 104 1 1 8.023 -0.742 16.48
105 105 1 1 -18.962 -21.831 -6.124
106 106 1 1 -25.0 1.913 12.018
107 107 1 1 15.447 21.115 -18.002
108 108 1 1 -23.411 16.248 -15.411
109 109 1 1 -4.724 -2.555 11.294
110 110 1 1 -19.625 13.062 -12.803
111 111 1 1 -12.668 13.0 -22.559
112 112 1 1 4.766 -5.473 -0.018
113 113 1 1 -7.376 0.795 -1.565
114 114 1 1 7.137 23.827 -5.527
115 115 1 1 9.282 -24.879 -10.418
116 116 1 1 -15.975 -0.847 15.781
117 117 1 1 18.677 11.548 21.399
118 118 1 1 21.644 -7.535 14.277
119 119 1 1 12.304 -3.937 1.2
120 120 1 1 -11.603 1.509 24.146
121 121 1 1 9.78 -4.681 4.208
122 122 1 1 1.079 21.208 -14.939
123 123 1 1 -9.971 11.437 -17.683
124 124 1 1 22.999 5.206 23.712
125 125 1 1 2.629 22.838 3.451
126 126 1 1 21.062 11.307 9.071
127 127 1 1 -10.06 -17.594 4.978
128 128 1 1 6.068 0.35 19.198
129 129 1 1 -2.402 17.533 -19.795
130 130 1 1 5.33 -10.267 -22.915
131 131 1 1 -3.917 -9.652 11.83
132 132 1 1 -13.291 -16.192 0.235
133 133 1 1 1.4 15.847 23.329
134 134 1 1 -3.4 16.919 -11.531
135 135 1 1 -16.201 -1.406 23.623
136 136 1 1 -9.355 -14.576 -8.069
137 137 1 1 -20.592 9.087 9.359
138 138 1 1 -2.844 -24.798 -11.562
139 139 1 1 -23.095 -23.628 11.891
140 140 1 1 15.363 24.401 6.149
141 141 1 1 5.802 13.068 -10.602
142 142 1 1 18.497 15.692 11.458
143 143 1 1 -17.777 11.04 -23.174
144 144 1 1 23.379 -3.145 23.326
145 145 1 1 -16.375 24.629 -1.64
146 146 1 1 -16.236 -13.842 15.305
147 147 1 1 11.664 0.903 15.142
148 148 1 1 -3.429 8.328 24.384
149 149 1 1 -13.757 -19.385 -16.301
150 150 1 1 -21.481 9.075 -20.44
151 151 1 1 4.203 -9.846 7.171
152 152 1 1 1.737 21.156 -21.562
153 153 1 1 10.832 7.422 7.982
154 154 1 1 1.362 12.362 -14.154
155 155 1 1 17.465 15.823 -14.586
156 156 1 1 18.72 3.116 -22.511
157 157 1 1 1.679 -16.667 -3.555
158 158 1 1 7.364 18.669 2.96
159 159 1 1 10.567 7.593 12.336
160 160 1 1 14.461 -22.558 -23.673
161 161 1 1 5.296 4.454 7.697
162 162 1 1 -20.39 -1.66 -6.64
163 163 1 1 24.348 15.587 3.332
164 164 1 1 -3.391 9.365 -10.599
165 165 1 1 22.919 -12.367 -2.7
166 166 1 1 14.607 4.145 13.327
167 167 1 1 -10.315 8.263 7.577
168 168 1 1 -1.269 5.778 -0.582
169 169 1 1 -7.373 1.882 -24.481
170 170 1 1 20.539 -17.516 1.895
171 171 1 1 21.132 -6.727 -13.529
172 172 1 1 5.459 13.51 -21.528
173 173 1 1 0.461 13.783 8.184
174 174 1 1 -6.602 17.739 -4.186
175 175 1 1 -11.241 -9.124 -18.783
176 176 1 1 -23.641 1.844 16.246
177 177 1 1 -20.48 -10.014 18.401
178 178 1 1 20.73 2.209 -20.557
179 179 1 1 -4.216 14.902 20.216
180 180 1 1 3.474 6.837 6.083
181 181 1 1 3.921 15.11 -21.742
182 182 2 1.34 11.935 8.055 -20.842
183 182 3 -0.39 12.784 7.235 -19.66
184 182 3 -0.39 11.087 8.876 -22.023
185 182 3 -0.39 11.082 8.873 -19.661
186 182 3 -0.39 12.788 7.238 -22.022
187 182 3 -0.39 13.093 9.258 -20.838
188 182 3 -0.39 10.777 6.852 -20.845
189 183 2 1.34 -2.872 9.564 -13.957
190 183 3 -0.39 -2.292 10.704 -12.884
191 183 3 -0.39 -3.453 8.423 -15.031
192 183 3 -0.39 -3.623 8.761 -12.7
193 183 3 -0.39 -2.122 10.366 -15.215
194 183 3 -0.39 -4.247 10.483 -14.191
195 183 3 -0.39 -1.498 8.644 -13.724
196 184 2 1.34 12.695 10.591 10.282
197 184 3 -0.39 11.37 11.583 10.058
198 184 3 -0.39 14.021 9.6 10.506
199 184 3 -0.39 13.183 10.889 8.712
200 184 3 -0.39 12.208 10.294 11.851
201 184 3 -0.39 13.587 11.902 10.807
202 184 3 -0.39 11.804 9.281 9.756
203 185 2 1.34 23.385 19.46 14.08
204 185 3 -0.39 23.72 20.77 15.061
205 185 3 -0.39 23.05 18.151 13.099
206 185 3 -0.39 24.742 19.797 13.167
207 185 3 -0.39 22.027 19.124 14.992
208 185 3 -0.39 24.298 18.48 15.077
209 185 3 -0.39 22.472 20.44 13.083
210 186 2 1.34 14.219 -21.275 7.599
211 186 3 -0.39 14.974 -22.591 8.298
212 186 3 -0.39 13.464 -19.959 6.901
213 186 3 -0.39 15.709 -20.622 7.219
214 186 3 -0.39 12.73 -21.928 7.98
215 186 3 -0.39 14.193 -22.07 6.131
216 186 3 -0.39 14.246 -20.48 9.068
217 187 2 1.34 -3.275 0.342 6.797
218 187 3 -0.39 -4.19 1.446 7.653
219 187 3 -0.39 -2.36 -0.762 5.94
220 187 3 -0.39 -2.716 -0.307 8.231
221 187 3 -0.39 -3.834 0.991 5.363
222 187 3 -0.39 -4.555 -0.731 6.811
223 187 3 -0.39 -1.995 1.414 6.783
224 188 2 1.34 22.814 19.962 -2.093
225 188 3 -0.39 23.968 19.513 -0.972
226 188 3 -0.39 21.66 20.411 -3.214
227 188 3 -0.39 22.603 21.414 -1.294
228 188 3 -0.39 23.025 18.51 -2.892
229 188 3 -0.39 24.002 20.656 -3.039
230 188 3 -0.39 21.626 19.268 -1.147
231 189 2 1.34 -6.374 -14.079 -11.518
232 189 3 -0.39 -7.932 -14.423 -11.027
233 189 3 -0.39 -4.815 -13.736 -12.009
234 189 3 -0.39 -6.967 -13.393 -12.92
235 189 3 -0.39 -5.78 -14.765 -10.116
236 189 3 -0.39 -6.461 -12.596 -10.756
237 189 3 -0.39 -6.287 -15.563 -12.28
238 190 2 1.34 -21.555 -1.879 4.329
239 190 3 -0.39 -21.426 -3.086 5.476
240 190 3 -0.39 -21.684 -0.672 3.181
241 190 3 -0.39 -22.548 -1.011 5.354
242 190 3 -0.39 -20.563 -2.747 3.304
243 190 3 -0.39 -20.218 -1.118 4.978
244 190 3 -0.39 -22.892 -2.64 3.679
245 191 2 1.34 -14.605 12.667 -13.249
246 191 3 -0.39 -13.328 13.671 -12.86
247 191 3 -0.39 -15.882 11.664 -13.639
248 191 3 -0.39 -14.502 13.154 -14.844
249 191 3 -0.39 -14.709 12.18 -11.655
250 191 3 -0.39 -13.534 11.424 -13.559
251 191 3 -0.39 -15.677 13.91 -12.939
252 192 2 1.34 -0.202 2.854 -18.845
253 192 3 -0.39 0.748 2.011 -17.76
254 192 3 -0.39 -1.152 3.698 -19.929
255 192 3 -0.39 -1.121 3.445 -17.581
256 192 3 -0.39 0.716 2.264 -20.108
257 192 3 -0.39 0.819 4.17 -18.717
258 192 3 -0.39 -1.224 1.539 -18.972
259 193 2 1.34 -17.245 -23.209 -20.921
260 193 3 -0.39 -16.17 -23.289 -22.197
261 193 3 -0.39 -18.32 -23.128 -19.645
262 193 3 -0.39 -17.993 -21.897 -21.634
263 193 3 -0.39 -16.497 -24.52 -20.208
264 193 3 -0.39 -18.281 -24.239 -21.729
265 193 3 -0.39 -16.209 -22.178 -20.113
266 194 2 1.34 21.779 -4.089 5.727
267 194 3 -0.39 22.121 -4.906 7.143
268 194 3 -0.39 21.438 -3.271 4.311
269 194 3 -0.39 23.246 -4.574 5.093
270 194 3 -0.39 20.312 -3.603 6.361
271 194 3 -0.39 21.058 -5.462 5.108
272 194 3 -0.39 22.501 -2.716 6.346
273 195 2 1.34 -3.37 -17.223 8.77
274 195 3 -0.39 -1.911 -17.17 9.581
275 195 3 -0.39 -4.829 -17.276 7.959
276 195 3 -0.39 -3.126 -18.841 8.437
277 195 3 -0.39 -3.614 -15.605 9.104
278 195 3 -0.39 -4.145 -17.633 10.192
279 195 3 -0.39 -2.595 -16.813 7.349
280 196 2 1.34 22.803 -14.524 -5.516
281 196 3 -0.39 21.535 -15.611 -5.551
282 196 3 -0.39 24.071 -13.437 -5.48
283 196 3 -0.39 23.619 -15.511 -4.443
284 196 3 -0.39 21.987 -13.537 -6.588
285 196 3 -0.39 23.522 -15.321 -6.795
286 196 3 -0.39 22.085 -13.727 -4.236
287 197 2 1.34 12.281 -23.749 14.76
288 197 3 -0.39 10.989 -22.928 15.429
289 197 3 -0.39 13.572 -24.569 14.09
290 197 3 -0.39 13.315 -22.995 15.833
291 197 3 -0.39 11.246 -24.502 13.687
292 197 3 -0.39 12.056 -24.993 15.85
293 197 3 -0.39 12.505 -22.504 13.669
294 198 2 1.34 22.476 -16.519 22.081
295 198 3 -0.39 21.112 -15.557 22.038
296 198 3 -0.39 23.841 -17.481 22.124
297 198 3 -0.39 23.419 -15.2 21.68
298 198 3 -0.39 21.534 -17.838 22.481
299 198 3 -0.39 22.673 -16.167 23.702
300 198 3 -0.39 22.28 -16.871 20.46
301 199 2 1.34 3.008 -19.588 -9.415
302 199 3 -0.39 1.603 -18.784 -9.002
303 199 3 -0.39 4.412 -20.392 -9.827
304 199 3 -0.39 3.851 -18.147 -9.352
305 199 3 -0.39 2.165 -21.028 -9.477
306 199 3 -0.39 3.334 -19.849 -7.798
307 199 3 -0.39 2.682 -19.327 -11.032
308 200 2 1.34 -4.629 -10.968 6.341
309 200 3 -0.39 -4.176 -9.382 6.081
310 200 3 -0.39 -5.083 -12.555 6.6
311 200 3 -0.39 -5.888 -10.45 7.309
312 200 3 -0.39 -3.371 -11.487 5.372
313 200 3 -0.39 -5.63 -10.901 5.005
314 200 3 -0.39 -3.629 -11.036 7.676
315 201 2 1.34 8.329 -12.568 -3.714
316 201 3 -0.39 8.34 -11.747 -5.168
317 201 3 -0.39 8.318 -13.389 -2.259
318 201 3 -0.39 9.611 -13.504 -4.233
319 201 3 -0.39 7.047 -11.631 -3.194
320 201 3 -0.39 9.4 -11.455 -3.078
321 201 3 -0.39 7.258 -13.68 -4.349
322 202 2 1.34 11.351 -6.023 14.563
323 202 3 -0.39 12.245 -5.204 15.713
324 202 3 -0.39 10.458 -6.843 13.414
325 202 3 -0.39 11.082 -7.259 15.654
326 202 3 -0.39 11.621 -4.787 13.473
327 202 3 -0.39 9.966 -5.255 15.092
328 202 3 -0.39 12.736 -6.792 14.035
329 203 2 1.34 -15.281 -4.855 14.7
330 203 3 -0.39 -15.416 -5.216 16.325
331 203 3 -0.39 -15.145 -4.494 13.075
332 203 3 -0.39 -14.83 -3.293 15.084
333 203 3 -0.39 -15.731 -6.416 14.315
334 203 3 -0.39 -13.678 -5.324 14.729
335 203 3 -0.39 -16.883 -4.385 14.67
336 204 2 1.34 -15.109 -20.393 -5.898
337 204 3 -0.39 -16.756 -20.625 -6.048
338 204 3 -0.39 -13.462 -20.16 -5.749
339 204 3 -0.39 -15.309 -18.766 -6.219
340 204 3 -0.39 -14.909 -22.02 -5.578
341 204 3 -0.39 -15.299 -20.095 -4.266
342 204 3 -0.39 -14.919 -20.691 -7.53
343 205 2 1.34 4.71 -22.75 12.851
344 205 3 -0.39 5.107 -24.368 12.969
345 205 3 -0.39 4.313 -21.132 12.734
346 205 3 -0.39 5.924 -22.534 11.725
347 205 3 -0.39 3.496 -22.966 13.978
348 205 3 -0.39 3.634 -23.103 11.624
349 205 3 -0.39 5.786 -22.396 14.078
350 206 2 1.34 3.275 2.146 -23.631
351 206 3 -0.39 2.417 2.491 -22.241
352 206 3 -0.39 4.134 1.801 -25.022
353 206 3 -0.39 4.67 1.976 -22.728
354 206 3 -0.39 1.881 2.316 -24.534
355 206 3 -0.39 2.947 0.521 -23.431
356 206 3 -0.39 3.603 3.771 -23.832
357 207 2 1.34 15.216 6.437 -23.732
358 207 3 -0.39 16.02 7.168 -25.001
359 207 3 -0.39 14.412 5.706 -22.464
360 207 3 -0.39 14.318 5.54 -24.818
361 207 3 -0.39 16.114 7.334 -22.646
362 207 3 -0.39 16.372 5.232 -23.694
363 207 3 -0.39 14.06 7.641 -23.771
364 208 2 1.34 -3.248 -5.835 14.526
365 208 3 -0.39 -2.584 -6.45 13.122
366 208 3 -0.39 -3.912 -5.22 15.929
367 208 3 -0.39 -3.062 -7.321 15.264
368 208 3 -0.39 -3.433 -4.349 13.787
369 208 3 -0.39 -1.727 -5.385 15.049
370 208 3 -0.39 -4.769 -6.285 14.003
371 209 2 1.34 12.55 1.684 7.691
372 209 3 -0.39 13.501 1.087 8.927
373 209 3 -0.39 11.599 2.28 6.454
374 209 3 -0.39 13.792 1.416 6.606
375 209 3 -0.39 11.308 1.951 8.775
376 209 3 -0.39 11.965 0.147 7.4
377 209 3 -0.39 13.136 3.22 7.982
378 210 2 1.34 -16.43 11.714 7.316
379 210 3 -0.39 -15.182 11.785 8.425
380 210 3 -0.39 -17.677 11.644 6.208
381 210 3 -0.39 -16.533 13.381 7.327
382 210 3 -0.39 -16.326 10.048 7.306
383 210 3 -0.39 -15.324 11.791 6.067
384 210 3 -0.39 -17.536 11.638 8.566
385 211 2 1.34 -2.996 -5.283 -10.643
386 211 3 -0.39 -2.009 -4.942 -9.34
387 211 3 -0.39 -3.983 -5.624 -11.947
388 211 3 -0.39 -3.354 -3.659 -10.797
389 211 3 -0.39 -2.639 -6.907 -10.489
390 211 3 -0.39 -1.698 -5.095 -11.676
391 211 3 -0.39 -4.295 -5.471 -9.61
392 212 2 1.34 -8.738 4.858 -9.853
393 212 3 -0.39 -7.665 5.988 -9.253
394 212 3 -0.39 -9.812 3.727 -10.452
395 212 3 -0.39 -9.472 4.76 -8.355
396 212 3 -0.39 -8.005 4.955 -11.35
397 212 3 -0.39 -9.787 6.083 -10.286
398 212 3 -0.39 -7.69 3.632 -9.42
399 213 2 1.34 -15.09 -5.583 -10.803
400 213 3 -0.39 -14.269 -4.47 -11.74
401 213 3 -0.39 -15.912 -6.695 -9.866
402 213 3 -0.39 -16.312 -5.639 -11.941
403 213 3 -0.39 -13.869 -5.526 -9.665
404 213 3 -0.39 -14.301 -6.827 -11.589
405 213 3 -0.39 -15.88 -4.338 -10.018
406 214 2 1.34 18.384 5.24 -4.879
407 214 3 -0.39 19.227 5.129 -3.442
408 214 3 -0.39 17.541 5.351 -6.317
409 214 3 -0.39 17.02 5.721 -4.043
410 214 3 -0.39 19.747 4.76 -5.716
411 214 3 -0.39 18.853 6.836 -5.031
412 214 3 -0.39 17.915 3.645 -4.727
413 215 2 1.34 -0.257 -23.379 -11.611
414 215 3 -0.39 -0.497 -24.96 -12.092
415 215 3 -0.39 -0.017 -21.798 -11.129
416 215 3 -0.39 0.396 -23.023 -13.106
417 215 3 -0.39 -0.909 -23.736 -10.115
418 215 3 -0.39 -1.775 -22.976 -12.177
419 215 3 -0.39 1.262 -23.782 -11.044
420 216 2 1.34 21.94 5.879 -14.791
421 216 3 -0.39 22.258 7.255 -13.899
422 216 3 -0.39 21.623 4.502 -15.682
423 216 3 -0.39 23.55 5.444 -14.693
424 216 3 -0.39 20.331 6.313 -14.889
425 216 3 -0.39 21.628 5.038 -13.382
426 216 3 -0.39 22.253 6.719 -16.2
427 217 2 1.34 22.653 2.308 -9.786
428 217 3 -0.39 23.809 2.015 -10.957
429 217 3 -0.39 21.498 2.6 -8.616
430 217 3 -0.39 21.533 2.65 -10.978
431 217 3 -0.39 23.773 1.966 -8.595
432 217 3 -0.39 22.205 0.699 -9.827
433 217 3 -0.39 23.101 3.916 -9.746
434 218 2 1.34 11.788 -11.584 19.033
435 218 3 -0.39 11.269 -12.343 17.638
436 218 3 -0.39 12.308 -10.826 20.427
437 218 3 -0.39 11.276 -10.116 18.425
438 218 3 -0.39 12.301 -13.053 19.641
439 218 3 -0.39 10.286 -11.823 19.722
440 218 3 -0.39 13.29 -11.346 18.343
441 219 2 1.34 18.737 -18.097 -17.855
442 219 3 -0.39 17.382 -17.456 -17.118
443 219 3 -0.39 20.092 -18.738 -18.592
444 219 3 -0.39 19.601 -17.899 -16.439
445 219 3 -0.39 17.874 -18.294 -19.271
446 219 3 -0.39 18.281 -19.626 -17.363
447 219 3 -0.39 19.194 -16.567 -18.346
448 220 2 1.34 -22.689 4.001 -1.564
449 220 3 -0.39 -22.773 4.589 -3.125
450 220 3 -0.39 -22.605 3.413 -0.003
451 220 3 -0.39 -22.004 2.588 -2.133
452 220 3 -0.39 -23.373 5.414 -0.995
453 220 3 -0.39 -21.168 4.669 -1.394
454 220 3 -0.39 -24.21 3.332 -1.734
455 221 2 1.34 -3.054 -4.163 6.371
456 221 3 -0.39 -3.201 -4.567 7.986
457 221 3 -0.39 -2.907 -3.76 4.757
458 221 3 -0.39 -3.337 -2.56 6.746
459 221 3 -0.39 -2.772 -5.766 5.997
460 221 3 -0.39 -1.415 -3.923 6.581
461 221 3 -0.39 -4.693 -4.403 6.162
462 222 2 1.34 -23.352 2.146 -11.189
463 222 3 -0.39 -25.0 2.417 -11.179
464 222 3 -0.39 -21.704 1.875 -11.199
465 222 3 -0.39 -23.623 0.498 -11.198
466 222 3 -0.39 -23.081 3.794 -11.179
467 222 3 -0.39 -23.361 2.157 -12.858
468 222 3 -0.39 -23.344 2.135 -9.519
469 223 2 1.34 0.369 0.13 15.783
470 223 3 -0.39 1.913 -0.131 16.363
471 223 3 -0.39 -1.176 0.391 15.203
472 223 3 -0.39 -0.165 0.427 17.338
473 223 3 -0.39 0.902 -0.167 14.229
474 223 3 -0.39 0.715 1.752 15.592
475 223 3 -0.39 0.022 -1.493 15.974
476 224 2 1.34 -7.744 -20.621 -2.797
477 224 3 -0.39 -8.565 -20.086 -1.444
478 224 3 -0.39 -6.924 -21.157 -4.15
479 224 3 -0.39 -6.371 -20.847 -1.874
480 224 3 -0.39 -9.118 -20.395 -3.72
481 224 3 -0.39 -8.223 -22.187 -2.467
482 224 3 -0.39 -7.265 -19.056 -3.127
483 225 2 1.34 -4.169 1.12 14.676
484 225 3 -0.39 -5.086 1.75 13.43
485 225 3 -0.39 -3.252 0.49 15.921
486 225 3 -0.39 -3.512 2.63 14.955
487 225 3 -0.39 -4.827 -0.39 14.396
488 225 3 -0.39 -5.401 1.457 15.752
489 225 3 -0.39 -2.938 0.783 13.599
490 226 2 1.34 -8.001 -11.298 18.045
491 226 3 -0.39 -6.483 -11.379 17.353
492 226 3 -0.39 -9.519 -11.217 18.737
493 226 3 -0.39 -8.499 -10.265 16.831
494 226 3 -0.39 -7.503 -12.332 19.259
495 226 3 -0.39 -8.488 -12.608 17.13
496 226 3 -0.39 -7.514 -9.989 18.96
497 227 2 1.34 9.046 23.479 -23.778
498 227 3 -0.39 8.026 24.05 -24.971
499 227 3 -0.39 10.066 22.908 -22.584
500 227 3 -0.39 10.146 23.009 -24.943
501 227 3 -0.39 7.945 23.949 -22.612
502 227 3 -0.39 9.78 24.976 -23.689
503 227 3 -0.39 8.312 21.981 -23.867
504 228 2 1.34 14.713 20.758 23.583
505 228 3 -0.39 15.334 19.406 24.341
506 228 3 -0.39 14.091 22.109 22.824
507 228 3 -0.39 16.132 20.925 22.718
508 228 3 -0.39 13.293 20.59 24.447
509 228 3 -0.39 14.09 19.791 22.372
510 228 3 -0.39 15.336 21.724 24.794
511 229 2 1.34 14.134 -11.565 -13.475
512 229 3 -0.39 14.249 -13.167 -13.933
513 229 3 -0.39 14.019 -9.963 -13.017
514 229 3 -0.39 12.918 -11.332 -14.596
515 229 3 -0.39 15.35 -11.798 -12.354
516 229 3 -0.39 12.995 -11.976 -12.325
517 229 3 -0.39 15.273 -11.155 -14.625
518 230 2 1.34 12.373 2.575 1.064
519 230 3 -0.39 13.944 2.744 1.606
520 230 3 -0.39 10.803 2.406 0.521
521 230 3 -0.39 11.828 3.471 2.363
522 230 3 -0.39 12.919 1.679 -0.236
523 230 3 -0.39 12.533 3.974 0.166
524 230 3 -0.39 12.214 1.176 1.961
525 231 2 1.34 18.745 16.258 4.639
526 231 3 -0.39 19.31 17.83 4.613
527 231 3 -0.39 18.18 14.687 4.664
528 231 3 -0.39 18.413 16.352 3.004
529 231 3 -0.39 19.077 16.165 6.273
530 231 3 -0.39 20.281 15.7 4.294
531 231 3 -0.39 17.209 16.817 4.983
532 232 2 1.34 -1.532 23.249 -8.066
533 232 3 -0.39 -1.905 23.259 -6.438
534 232 3 -0.39 -1.159 23.239 -9.694
535 232 3 -0.39 -2.184 24.779 -8.225
536 232 3 -0.39 -0.88 21.719 -7.908
537 232 3 -0.39 -0.04 23.92 -7.729
538 232 3 -0.39 -3.023 22.578 -8.404
539 233 2 1.34 -23.877 16.435 -2.272
540 233 3 -0.39 -23.549 15.015 -3.088
541 233 3 -0.39 -24.204 17.855 -1.456
542 233 3 -0.39 -22.712 17.222 -3.174
543 233 3 -0.39 -25.042 15.649 -1.37
544 233 3 -0.39 -25.028 16.828 -3.416
545 233 3 -0.39 -22.725 16.043 -1.127
546 234 2 1.34 9.767 23.504 -9.002
547 234 3 -0.39 9.177 25.0 -8.553
548 234 3 -0.39 10.358 22.007 -9.451
549 234 3 -0.39 11.03 23.678 -7.923
550 234 3 -0.39 8.504 23.329 -10.081
551 234 3 -0.39 8.847 22.783 -7.809
552 234 3 -0.39 10.687 24.225 -10.195
553 235 2 1.34 -7.5 4.271 -4.83
554 235 3 -0.39 -8.994 3.527 -4.876
555 235 3 -0.39 -6.005 5.015 -4.783
556 235 3 -0.39 -7.905 4.995 -3.38
557 235 3 -0.39 -7.094 3.547 -6.279
558 235 3 -0.39 -6.874 2.963 -4.001
559 235 3 -0.39 -8.125 5.58 -5.658
560 236 2 1.34 6.497 -8.295 5.921
561 236 3 -0.39 4.844 -8.079 6.028
562 236 3 -0.39 8.15 -8.512 5.815
563 236 3 -0.39 6.634 -6.844 5.105
564 236 3 -0.39 6.36 -9.746 6.737
565 236 3 -0.39 6.696 -7.497 7.375
566 236 3 -0.39 6.299 -9.094 4.468
567 237 2 1.34 -11.852 -5.998 -18.599
568 237 3 -0.39 -11.611 -4.98 -17.297
569 237 3 -0.39 -12.093 -7.017 -19.9
570 237 3 -0.39 -12.675 -7.065 -17.612
571 237 3 -0.39 -11.029 -4.932 -19.585
572 237 3 -0.39 -13.285 -5.215 -18.946
573 237 3 -0.39 -10.419 -6.782 -18.251
574 238 2 1.34 -8.018 7.056 10.975
575 238 3 -0.39 -7.738 7.005 12.621
576 238 3 -0.39 -8.298 7.107 9.329
577 238 3 -0.39 -9.077 5.772 11.115
578 238 3 -0.39 -6.96 8.34 10.834
579 238 3 -0.39 -9.279 8.123 11.223
580 238 3 -0.39 -6.757 5.989 10.727
581 239 2 1.34 -10.112 -23.969 15.426
582 239 3 -0.39 -9.687 -24.893 16.751
583 239 3 -0.39 -10.536 -23.046 14.101
584 239 3 -0.39 -11.101 -23.034 16.394
585 239 3 -0.39 -9.123 -24.904 14.458
586 239 3 -0.39 -8.835 -22.939 15.735
587 239 3 -0.39 -11.389 -25.0 15.116
588 240 2 1.34 5.358 -6.905 -2.921
589 240 3 -0.39 4.26 -8.163 -2.878
590 240 3 -0.39 6.455 -5.646 -2.964
591 240 3 -0.39 4.27 -5.928 -2.113
592 240 3 -0.39 6.445 -7.881 -3.729
593 240 3 -0.39 5.991 -7.408 -1.46
594 240 3 -0.39 4.724 -6.401 -4.382
595 241 2 1.34 11.411 21.815 -5.649
596 241 3 -0.39 10.351 20.901 -4.738
597 241 3 -0.39 12.472 22.728 -6.56
598 241 3 -0.39 10.52 23.186 -5.31
599 241 3 -0.39 12.303 20.443 -5.987
600 241 3 -0.39 12.345 22.086 -4.29
601 241 3 -0.39 10.478 21.543 -7.007
602 242 2 1.34 -15.095 11.425 0.792
603 242 3 -0.39 -15.227 13.083 0.94
604 242 3 -0.39 -14.963 9.767 0.645
605 242 3 -0.39 -14.246 11.619 -0.633
606 242 3 -0.39 -15.944 11.231 2.218
607 242 3 -0.39 -13.663 11.463 1.651
608 242 3 -0.39 -16.527 11.387 -0.066
609 243 2 1.34 14.079 11.847 16.811
610 243 3 -0.39 13.708 11.359 15.257
611 243 3 -0.39 14.449 12.336 18.364
612 243 3 -0.39 14.075 13.441 16.31
613 243 3 -0.39 14.083 10.254 17.311
614 243 3 -0.39 12.45 11.955 17.165
615 243 3 -0.39 15.707 11.74 16.456
616 244 2 1.34 9.537 -19.407 -10.88
617 244 3 -0.39 8.244 -18.868 -11.79
618 244 3 -0.39 10.83 -19.946 -9.971
619 244 3 -0.39 9.509 -17.988 -9.999
620 244 3 -0.39 9.566 -20.826 -11.761
621 244 3 -0.39 8.48 -20.105 -9.791
622 244 3 -0.39 10.594 -18.71 -11.969
623 245 2 1.34 19.383 2.002 9.37
624 245 3 -0.39 17.9 1.306 9.695
625 245 3 -0.39 20.866 2.698 9.044
626 245 3 -0.39 19.954 1.475 10.848
627 245 3 -0.39 18.812 2.528 7.891
628 245 3 -0.39 19.897 0.578 8.664
629 245 3 -0.39 18.87 3.426 10.075
630 246 2 1.34 0.754 4.064 9.985
631 246 3 -0.39 -0.048 3.088 8.892
632 246 3 -0.39 1.556 5.039 11.077
633 246 3 -0.39 -0.147 3.41 11.23
634 246 3 -0.39 1.655 4.718 8.739
635 246 3 -0.39 1.909 2.876 10.196
636 246 3 -0.39 -0.401 5.251 9.773
637 247 2 1.34 14.25 -18.462 22.965
638 247 3 -0.39 13.515 -18.392 21.467
639 247 3 -0.39 14.986 -18.532 24.463
640 247 3 -0.39 12.847 -19.082 23.625
641 247 3 -0.39 15.654 -17.842 22.305
642 247 3 -0.39 14.779 -20.011 22.634
643 247 3 -0.39 13.722 -16.913 23.297
644 248 2 1.34 -15.988 20.674 -10.753
645 248 3 -0.39 -15.593 20.55 -12.371
646 248 3 -0.39 -16.383 20.799 -9.135
647 248 3 -0.39 -17.166 21.798 -11.127
648 248 3 -0.39 -14.81 19.551 -10.379
649 248 3 -0.39 -17.104 19.445 -10.931
650 248 3 -0.39 -14.872 21.904 -10.575
651 249 2 1.34 22.389 21.887 10.104
652 249 3 -0.39 21.035 21.399 10.95
653 249 3 -0.39 23.744 22.376 9.257
654 249 3 -0.39 22.095 23.471 10.547
655 249 3 -0.39 22.683 20.304 9.66
656 249 3 -0.39 23.321 21.677 11.473
657 249 3 -0.39 21.457 22.098 8.734
658 250 2 1.34 -10.585 -16.537 23.011
659 250 3 -0.39 -11.269 -17.677 24.022
660 250 3 -0.39 -9.9 -15.398 21.999
661 250 3 -0.39 -9.412 -16.223 24.158
662 250 3 -0.39 -11.757 -16.852 21.863
663 250 3 -0.39 -9.612 -17.717 22.34
664 250 3 -0.39 -11.558 -15.357 23.682
665 251 2 1.34 -0.744 22.564 1.314
666 251 3 -0.39 -1.591 21.994 2.635
667 251 3 -0.39 0.104 23.134 -0.008
668 251 3 -0.39 0.59 22.829 2.284
669 251 3 -0.39 -2.078 22.299 0.344
670 251 3 -0.39 -0.203 21.017 0.993
671 251 3 -0.39 -1.285 24.111 1.635
672 252 2 1.34 -2.524 -8.31 -14.167
673 252 3 -0.39 -2.324 -9.916 -13.751
674 252 3 -0.39 -2.724 -6.705 -14.582
675 252 3 -0.39 -3.453 -8.072 -12.799
676 252 3 -0.39 -1.595 -8.548 -15.534
677 252 3 -0.39 -1.15 -7.916 -13.303
678 252 3 -0.39 -3.897 -8.705 -15.031
679 253 2 1.34 12.08 16.828 15.462
680 253 3 -0.39 10.9 17.361 14.406
681 253 3 -0.39 13.26 16.296 16.517
682 253 3 -0.39 13.233 17.022 14.27
683 253 3 -0.39 10.926 16.634 16.654
684 253 3 -0.39 12.337 18.399 15.967
685 253 3 -0.39 11.823 15.257 14.957
686 254 2 1.34 -21.265 8.515 19.862
687 254 3 -0.39 -20.875 10.139 19.867
688 254 3 -0.39 -21.655 6.891 19.857
689 254 3 -0.39 -22.593 8.831 20.825
690 254 3 -0.39 -19.937 8.199 18.899
691 254 3 -0.39 -22.2 8.743 18.498
692 254 3 -0.39 -20.33 8.286 21.227
693 255 2 1.34 8.145 -8.224 -19.941
694 255 3 -0.39 8.913 -9.189 -18.815
695 255 3 -0.39 7.377 -7.259 -21.068
696 255 3 -0.39 7.854 -7.078 -18.761
697 255 3 -0.39 8.436 -9.369 -21.121
698 255 3 -0.39 9.599 -7.485 -20.3
699 255 3 -0.39 6.691 -8.963 -19.583
700 256 2 1.34 2.571 18.556 -8.493
701 256 3 -0.39 1.099 18.504 -7.705
702 256 3 -0.39 4.042 18.608 -9.282
703 256 3 -0.39 3.083 19.763 -7.459
704 256 3 -0.39 2.059 17.349 -9.528
705 256 3 -0.39 3.173 17.403 -7.446
706 256 3 -0.39 1.969 19.709 -9.541
707 257 2 1.34 -13.255 12.957 -18.909
708 257 3 -0.39 -12.143 11.722 -19.08
709 257 3 -0.39 -14.366 14.192 -18.737
710 257 3 -0.39 -14.439 11.983 -19.572
711 257 3 -0.39 -12.071 13.93 -18.245
712 257 3 -0.39 -13.646 12.394 -17.386
713 257 3 -0.39 -12.864 13.52 -20.431
714 258 2 1.34 3.313 -18.516 1.17
715 258 3 -0.39 3.312 -19.914 0.255
716 258 3 -0.39 3.313 -17.119 2.084
717 258 3 -0.39 2.647 -19.355 2.451
718 258 3 -0.39 3.978 -17.677 -0.112
719 258 3 -0.39 4.844 -18.881 1.726
720 258 3 -0.39 1.781 -18.151 0.613
721 259 2 1.34 1.348 -11.459 5.211
722 259 3 -0.39 2.596 -11.03 6.234
723 259 3 -0.39 0.1 -11.889 4.188
724 259 3 -0.39 0.327 -11.618 6.523
725 259 3 -0.39 2.369 -11.301 3.899
726 259 3 -0.39 0.913 -9.853 5.067
727 259 3 -0.39 1.782 -13.066 5.355
728 260 2 1.34 9.952 -23.411 -17.948
729 260 3 -0.39 10.717 -22.889 -19.338
730 260 3 -0.39 9.187 -23.932 -16.558
731 260 3 -0.39 9.553 -24.844 -18.706
732 260 3 -0.39 10.352 -21.977 -17.191
733 260 3 -0.39 11.382 -24.09 -17.416
734 260 3 -0.39 8.522 -22.731 -18.48
735 261 2 1.34 18.81 -2.99 -4.666
736 261 3 -0.39 17.264 -3.061 -4.038
737 261 3 -0.39 20.357 -2.919 -5.293
738 261 3 -0.39 18.571 -1.388 -5.073
739 261 3 -0.39 19.05 -4.592 -4.258
740 261 3 -0.39 19.395 -2.523 -3.172
741 261 3 -0.39 18.226 -3.457 -6.159
742 262 2 1.34 2.59 6.054 -0.274
743 262 3 -0.39 2.505 5.455 -1.831
744 262 3 -0.39 2.675 6.652 1.283
745 262 3 -0.39 3.376 7.414 -0.84
746 262 3 -0.39 1.804 4.693 0.293
747 262 3 -0.39 1.119 6.815 -0.486
748 262 3 -0.39 4.061 5.292 -0.062
749 263 2 1.34 15.889 23.702 -12.53
750 263 3 -0.39 15.405 25.0 -13.463
751 263 3 -0.39 16.372 22.404 -11.597
752 263 3 -0.39 15.543 22.665 -13.794
753 263 3 -0.39 16.234 24.738 -11.267
754 263 3 -0.39 17.449 23.874 -13.099
755 263 3 -0.39 14.328 23.529 -11.961
756 264 2 1.34 -15.161 10.437 -23.561
757 264 3 -0.39 -16.423 9.685 -24.356
758 264 3 -0.39 -13.899 11.189 -22.767
759 264 3 -0.39 -14.331 10.568 -25.004
760 264 3 -0.39 -15.992 10.306 -22.118
761 264 3 -0.39 -15.873 11.922 -23.836
762 264 3 -0.39 -14.449 8.952 -23.286
763 265 2 1.34 -20.584 -7.53 -2.006
764 265 3 -0.39 -20.221 -8.978 -1.258
765 265 3 -0.39 -20.947 -6.081 -2.754
766 265 3 -0.39 -21.164 -6.928 -0.56
767 265 3 -0.39 -20.004 -8.131 -3.452
768 265 3 -0.39 -19.06 -6.956 -1.634
769 265 3 -0.39 -22.108 -8.103 -2.378
770 266 2 1.34 12.787 -12.943 -23.561
771 266 3 -0.39 12.199 -13.553 -22.121
772 266 3 -0.39 13.375 -12.333 -25.0
773 266 3 -0.39 14.34 -13.343 -23.096
774 266 3 -0.39 11.233 -12.543 -24.026
775 266 3 -0.39 12.612 -14.446 -24.269
776 266 3 -0.39 12.961 -11.441 -22.853
777 267 2 1.34 -23.928 -20.276 -16.443
778 267 3 -0.39 -23.105 -19.16 -15.513
779 267 3 -0.39 -24.751 -21.393 -17.373
780 267 3 -0.39 -22.855 -20.023 -17.697
781 267 3 -0.39 -25.002 -20.529 -15.189
782 267 3 -0.39 -22.949 -21.492 -15.85
783 267 3 -0.39 -24.907 -19.06 -17.036
784 268 2 1.34 22.038 -19.739 1.425
785 268 3 -0.39 21.474 -21.202 0.85
786 268 3 -0.39 22.601 -18.275 2.0
787 268 3 -0.39 22.984 -20.542 2.543
788 268 3 -0.39 21.092 -18.935 0.307
789 268 3 -0.39 23.294 -19.79 0.325
790 268 3 -0.39 20.782 -19.687 2.525
791 269 2 1.34 12.915 1.603 -16.395
792 269 3 -0.39 11.279 1.488 -16.709
793 269 3 -0.39 14.551 1.718 -16.08
794 269 3 -0.39 13.211 0.373 -17.485
795 269 3 -0.39 12.619 2.832 -15.304
796 269 3 -0.39 13.071 2.727 -17.62
797 269 3 -0.39 12.759 0.479 -15.17
798 270 2 1.34 10.603 22.157 2.735
799 270 3 -0.39 9.414 21.228 3.452
800 270 3 -0.39 11.791 23.086 2.017
801 270 3 -0.39 10.33 21.383 1.28
802 270 3 -0.39 10.875 22.931 4.189
803 270 3 -0.39 9.461 23.309 2.336
804 270 3 -0.39 11.744 21.005 3.134
805 271 2 1.34 12.477 -5.783 -17.911
806 271 3 -0.39 11.182 -5.64 -16.866
807 271 3 -0.39 13.772 -5.926 -18.956
808 271 3 -0.39 13.409 -6.402 -16.671
809 271 3 -0.39 11.544 -5.164 -19.151
810 271 3 -0.39 11.983 -7.327 -18.311
811 271 3 -0.39 12.97 -4.238 -17.511
812 272 2 1.34 -0.175 13.337 -20.138